42
Lattice="8.4 0.0 0.0 0.0 8.4 0.0 0.0 0.0 22.1" Properties=species:S:1:pos:R:3:forces:R:3 energy=-210.0 pbc="T T T"
Mg       0.00000000       0.00000000      10.00000000       0.00000000       0.00000000       0.00000000
Mg       2.10000000       2.10000000      10.00000000       0.00000000       0.00000000       0.00000000
Mg       2.10000000       0.00000000      10.00000000       0.00000000       0.00000000       0.00000000
Mg       0.00000000       2.10000000      10.00000000       0.00000000       0.00000000       0.00000000
O        0.00000000       0.00000000      12.10000000       0.00000000       0.00000000       0.00000000
O        2.10000000       2.10000000      12.10000000       0.00000000       0.00000000       0.00000000
O        2.10000000       0.00000000      12.10000000       0.00000000       0.00000000       0.00000000
O        0.00000000       2.10000000      12.10000000       0.00000000       0.00000000       0.00000000
Mg       0.00000000       4.20000000      10.00000000       0.00000000       0.00000000       0.00000000
Mg       2.10000000       6.30000000      10.00000000       0.00000000       0.00000000       0.00000000
Mg       2.10000000       4.20000000      10.00000000       0.00000000       0.00000000       0.00000000
Mg       0.00000000       6.30000000      10.00000000       0.00000000       0.00000000       0.00000000
O        0.00000000       4.20000000      12.10000000       0.00000000       0.00000000       0.00000000
O        2.10000000       6.30000000      12.10000000       0.00000000       0.00000000       0.00000000
O        2.10000000       4.20000000      12.10000000       0.00000000       0.00000000       0.00000000
O        0.00000000       6.30000000      12.10000000       0.00000000       0.00000000       0.00000000
Mg       4.20000000       0.00000000      10.00000000       0.00000000       0.00000000       0.00000000
Mg       6.30000000       2.10000000      10.00000000       0.00000000       0.00000000       0.00000000
Mg       6.30000000       0.00000000      10.00000000       0.00000000       0.00000000       0.00000000
Mg       4.20000000       2.10000000      10.00000000       0.00000000       0.00000000       0.00000000
O        4.20000000       0.00000000      12.10000000       0.00000000       0.00000000       0.00000000
O        6.30000000       2.10000000      12.10000000       0.00000000       0.00000000       0.00000000
O        6.30000000       0.00000000      12.10000000       0.00000000       0.00000000       0.00000000
O        4.20000000       2.10000000      12.10000000       0.00000000       0.00000000       0.00000000
Mg       4.20000000       4.20000000      10.00000000       0.00000000       0.00000000       0.00000000
Mg       6.30000000       6.30000000      10.00000000       0.00000000       0.00000000       0.00000000
Mg       6.30000000       4.20000000      10.00000000       0.00000000       0.00000000       0.00000000
Mg       4.20000000       6.30000000      10.00000000       0.00000000       0.00000000       0.00000000
O        4.20000000       4.20000000      12.10000000       0.00000000       0.00000000       0.00000000
O        6.30000000       6.30000000      12.10000000       0.00000000       0.00000000       0.00000000
O        6.30000000       4.20000000      12.10000000       0.00000000       0.00000000       0.00000000
O        4.20000000       6.30000000      12.10000000       0.00000000       0.00000000       0.00000000
Pt       0.21009034       2.31024627      14.60000000       0.00000000       0.00000000       0.00000000
Fe       6.18635820       5.68427569      17.10000000       0.00000000       0.00000000       0.00000000
Pt       0.73028619       3.54414329      19.60000000       0.00000000       0.00000000       0.00000000
Fe       1.83655899       4.24498442      22.10000000       0.00000000       0.00000000       0.00000000
Fe       1.67023627       5.45902928      24.60000000       0.00000000       0.00000000       0.00000000
Pt       1.85170123       4.94983174      27.10000000       0.00000000       0.00000000       0.00000000
Pt       0.05458958       6.76888172      29.60000000       0.00000000       0.00000000       0.00000000
Pt       2.85810434       1.30602780      32.10000000       0.00000000       0.00000000       0.00000000
Pt       2.82739418       0.77906508      34.60000000       0.00000000       0.00000000       0.00000000
Fe       7.11895268       5.07129866      37.10000000       0.00000000       0.00000000       0.00000000
