(written by ASE)

2 atoms
1 atom types

0.0                      10  xlo xhi
0.0                      10  ylo yhi
0.0                      10  zlo zhi

Atoms # atomic

     1   1                       0                       0                       0
     2   1                       0                       0      1.6000000000000001
