ITEM: TIMESTEP
0
ITEM: NUMBER OF ATOMS
2
ITEM: BOX BOUNDS pp pp pp
0.0 10.0
0.0 10.0
0.0 10.0
ITEM: ATOMS id type x y z c_pace[1]
1 1 0.0 0.0 0.0 6.0
2 1 2.0 0.0 0.0 6.0
