2
Properties=species:S:1:pos:R:3:forces:R:3 energy=-1.0 pbc="F F F"
H        0.00000000       0.00000000       0.00000000       0.00000000       0.00000000       0.00000000
H        0.00000000       0.00000000       0.74000000       0.00000000       0.00000000       0.00000000
2
Properties=species:S:1:pos:R:3:forces:R:3 energy=-1.0 pbc="F F F"
H        0.00000000       0.00000000       0.00000000       0.00000000       0.00000000       0.00000000
H        0.00000000       0.00000000       0.74000000       0.00000000       0.00000000       0.00000000
2
Properties=species:S:1:pos:R:3:forces:R:3 energy=-1.0 pbc="F F F"
H        0.00000000       0.00000000       0.00000000       0.00000000       0.00000000       0.00000000
H        0.00000000       0.00000000       0.74000000       0.00000000       0.00000000       0.00000000
2
Properties=species:S:1:pos:R:3:forces:R:3 energy=-1.0 pbc="F F F"
H        0.00000000       0.00000000       0.00000000       0.00000000       0.00000000       0.00000000
H        0.00000000       0.00000000       0.74000000       0.00000000       0.00000000       0.00000000
2
Properties=species:S:1:pos:R:3:forces:R:3 energy=-1.0 pbc="F F F"
H        0.00000000       0.00000000       0.00000000       0.00000000       0.00000000       0.00000000
H        0.00000000       0.00000000       0.74000000       0.00000000       0.00000000       0.00000000
