ITEM: TIMESTEP
0
ITEM: NUMBER OF ATOMS
8
ITEM: BOX BOUNDS pp pp pp
0.0 5.43
0.0 5.43
0.0 5.43
ITEM: ATOMS id type x y z
1 1 0.0 0.0 0.0
2 1 1.35 1.35 1.35
3 1 2.71 2.71 0.0
4 1 4.07 4.07 1.35
5 1 2.71 0.0 2.71
6 1 4.07 1.35 4.07
7 1 0.0 2.71 2.71
8 1 1.35 4.07 4.07
